/*--------------------------------*- C++ -*----------------------------------*\
| =========                 |                                                 |
| \\      /  F ield         | OpenFOAM: The Open Source CFD Toolbox           |
|  \\    /   O peration     | Version:  2206                                  |
|   \\  /    A nd           | Website:  www.openfoam.com                      |
|    \\/     M anipulation  |                                                 |
\*---------------------------------------------------------------------------*/
FoamFile
{
    version     2.0;
    format      ascii;
    arch        "LSB;label=32;scalar=64";
    class       volVectorField;
    location    "0";
    object      U;
}
// * * * * * * * * * * * * * * * * * * * * * * * * * * * * * * * * * * * * * //

dimensions      [0 1 -1 0 0 0 0];

internalField   uniform (243.158 0 0);

boundaryField
{
    frontAndBack_right
    {
        type            wedge;
    }
    inlet
{ 
 type fixedValue; 
value nonuniform List<vector> 
 296
 ( 
(0.0 0 0)
(69.75723262360283 0 0)
(75.75152616697383 0 0)
(79.67974422786067 0 0)
(82.7288906538417 0 0)
(85.2881029961567 0 0)
(87.53584963124239 0 0)
(89.56946757874778 0 0)
(91.44812223293954 0 0)
(93.21056413479636 0 0)
(94.883624309588 0 0)
(96.48667436432694 0 0)
(98.0341870299374 0 0)
(99.53727578278442 0 0)
(101.00467050200048 0 0)
(102.4433619282779 0 0)
(103.85904394115424 0 0)
(105.25642084707785 0 0)
(106.63942709476466 0 0)
(108.01139209889807 0 0)
(109.37516129461986 0 0)
(110.73318750514932 0 0)
(112.08760232964536 0 0)
(113.44027331585195 0 0)
(114.79284678670768 0 0)
(116.14678314726264 0 0)
(117.5033853527574 0 0)
(118.86382260647947 0 0)
(120.22914977446526 0 0)
(121.60032163056623 0 0)
(122.97820816749238 0 0)
(124.36360426463455 0 0)
(125.75723982166136 0 0)
(127.15978760078137 0 0)
(128.57187002781413 0 0)
(129.9940651497239 0 0)
(131.42691200688597 0 0)
(132.8709146388609 0 0)
(134.3265464441042 0 0)
(135.79425320759393 0 0)
(137.27445627203878 0 0)
(138.76755513280577 0 0)
(140.27392990356353 0 0)
(141.79394328455894 0 0)
(143.32794238029925 0 0)
(144.87626038132382 0 0)
(146.43921804192163 0 0)
(148.01712521440044 0 0)
(149.6102816755449 0 0)
(151.21897850898299 0 0)
(152.8434989513197 0 0)
(154.48411933639673 0 0)
(156.1411097907875 0 0)
(157.81473509725092 0 0)
(159.50525520854853 0 0)
(161.21292603595361 0 0)
(162.93799983006105 0 0)
(164.6807257256503 0 0)
(166.44135028857252 0 0)
(168.2201178114134 0 0)
(170.01727077894705 0 0)
(171.8330501855319 0 0)
(173.66769592110404 0 0)
(175.521446973632 0 0)
(177.3945417842873 0 0)
(179.28721845140365 0 0)
(181.19971502454848 0 0)
(183.06530939598568 0 0)
(184.83031188297758 0 0)
(186.50809209552378 0 0)
(188.10962733654063 0 0)
(189.643963983647 0 0)
(191.11865103516558 0 0)
(192.54005184868558 0 0)
(193.91358414217507 0 0)
(195.24390043027094 0 0)
(196.5350254176052 0 0)
(197.7904635488628 0 0)
(199.01328769246746 0 0)
(200.20620827224647 0 0)
(201.3716259990198 0 0)
(202.5116780194686 0 0)
(203.6282786506669 0 0)
(204.72314746938048 0 0)
(205.79819292561368 0 0)
(206.8551718423404 0 0)
(207.8949780158348 0 0)
(208.91840027583967 0 0)
(209.9265022932567 0 0)
(210.9202580838358 0 0)
(211.90056226909596 0 0)
(212.8682389611166 0 0)
(213.82404849019412 0 0)
(214.76869427770092 0 0)
(215.70282789980408 0 0)
(216.6270544964666 0 0)
(217.54193664719287 0 0)
(218.44799866783544 0 0)
(219.34573120192667 0 0)
(220.23559218761545 0 0)
(221.11801005472972 0 0)
(221.9933865850833 0 0)
(222.8621001568891 0 0)
(223.72466057426985 0 0)
(224.58184082238952 0 0)
(225.43378757242183 0 0)
(226.2803639021896 0 0)
(227.12185230330135 0 0)
(227.95852015444015 0 0)
(228.79062112677255 0 0)
(229.61839536765015 0 0)
(230.44207078270043 0 0)
(231.26186419934962 0 0)
(232.07798141192646 0 0)
(232.89061825283787 0 0)
(233.6999615620866 0 0)
(234.50618914432118 0 0)
(235.30947112956068 0 0)
(236.10996985736963 0 0)
(236.90783983885433 0 0)
(237.70322939736965 0 0)
(238.49628052237284 0 0)
(239.28714597554827 0 0)
(240.0764910787047 0 0)
(240.86440813399372 0 0)
(241.65049558764792 0 0)
(242.43486862546433 0 0)
(243.21763840928926 0 0)
(243.2372062551572 0 0)
(243.2372062551572 0 0)
(243.2372062551572 0 0)
(243.2372062551572 0 0)
(243.2372062551572 0 0)
(243.2372062551572 0 0)
(243.2372062551572 0 0)
(243.2372062551572 0 0)
(243.2372062551572 0 0)
(243.2372062551572 0 0)
(243.2372062551572 0 0)
(243.2372062551572 0 0)
(243.2372062551572 0 0)
(243.2372062551572 0 0)
(243.2372062551572 0 0)
(243.2372062551572 0 0)
(243.2372062551572 0 0)
(243.2372062551572 0 0)
(243.2372062551572 0 0)
(243.2372062551572 0 0)
(243.2372062551572 0 0)
(243.2372062551572 0 0)
(243.2372062551572 0 0)
(243.2372062551572 0 0)
(243.2372062551572 0 0)
(243.2372062551572 0 0)
(243.2372062551572 0 0)
(243.2372062551572 0 0)
(243.2372062551572 0 0)
(243.2372062551572 0 0)
(243.2372062551572 0 0)
(243.2372062551572 0 0)
(243.2372062551572 0 0)
(243.2372062551572 0 0)
(243.2372062551572 0 0)
(243.2372062551572 0 0)
(243.2372062551572 0 0)
(243.2372062551572 0 0)
(243.2372062551572 0 0)
(243.2372062551572 0 0)
(243.2372062551572 0 0)
(243.2372062551572 0 0)
(243.2372062551572 0 0)
(243.2372062551572 0 0)
(243.2372062551572 0 0)
(243.2372062551572 0 0)
(243.2372062551572 0 0)
(243.2372062551572 0 0)
(243.2372062551572 0 0)
(243.2372062551572 0 0)
(243.2372062551572 0 0)
(243.2372062551572 0 0)
(243.2372062551572 0 0)
(243.2372062551572 0 0)
(243.2372062551572 0 0)
(243.2372062551572 0 0)
(243.2372062551572 0 0)
(243.2372062551572 0 0)
(243.2372062551572 0 0)
(243.2372062551572 0 0)
(243.2372062551572 0 0)
(243.2372062551572 0 0)
(243.2372062551572 0 0)
(243.2372062551572 0 0)
(243.2372062551572 0 0)
(243.2372062551572 0 0)
(243.2372062551572 0 0)
(243.2372062551572 0 0)
(243.2372062551572 0 0)
(243.2372062551572 0 0)
(243.2372062551572 0 0)
(243.2372062551572 0 0)
(243.2372062551572 0 0)
(243.2372062551572 0 0)
(243.2372062551572 0 0)
(243.2372062551572 0 0)
(243.2372062551572 0 0)
(243.2372062551572 0 0)
(243.2372062551572 0 0)
(243.2372062551572 0 0)
(243.2372062551572 0 0)
(243.2372062551572 0 0)
(243.2372062551572 0 0)
(243.2372062551572 0 0)
(243.2372062551572 0 0)
(243.2372062551572 0 0)
(243.2372062551572 0 0)
(243.2372062551572 0 0)
(243.2372062551572 0 0)
(243.2372062551572 0 0)
(243.2372062551572 0 0)
(243.2372062551572 0 0)
(243.2372062551572 0 0)
(243.2372062551572 0 0)
(243.2372062551572 0 0)
(243.2372062551572 0 0)
(243.2372062551572 0 0)
(243.2372062551572 0 0)
(243.2372062551572 0 0)
(243.2372062551572 0 0)
(243.2372062551572 0 0)
(243.2372062551572 0 0)
(243.2372062551572 0 0)
(243.2372062551572 0 0)
(243.2372062551572 0 0)
(243.2372062551572 0 0)
(243.2372062551572 0 0)
(243.2372062551572 0 0)
(243.2372062551572 0 0)
(243.2372062551572 0 0)
(243.2372062551572 0 0)
(243.2372062551572 0 0)
(243.2372062551572 0 0)
(243.2372062551572 0 0)
(243.2372062551572 0 0)
(243.2372062551572 0 0)
(243.2372062551572 0 0)
(243.2372062551572 0 0)
(243.2372062551572 0 0)
(243.2372062551572 0 0)
(243.2372062551572 0 0)
(243.2372062551572 0 0)
(243.2372062551572 0 0)
(243.2372062551572 0 0)
(243.2372062551572 0 0)
(243.2372062551572 0 0)
(243.2372062551572 0 0)
(243.2372062551572 0 0)
(243.2372062551572 0 0)
(243.2372062551572 0 0)
(243.2372062551572 0 0)
(243.2372062551572 0 0)
(243.2372062551572 0 0)
(243.2372062551572 0 0)
(243.2372062551572 0 0)
(243.2372062551572 0 0)
(243.2372062551572 0 0)
(243.2372062551572 0 0)
(243.2372062551572 0 0)
(243.2372062551572 0 0)
(243.2372062551572 0 0)
(243.2372062551572 0 0)
(243.2372062551572 0 0)
(243.2372062551572 0 0)
(243.2372062551572 0 0)
(243.2372062551572 0 0)
(243.2372062551572 0 0)
(243.2372062551572 0 0)
(243.2372062551572 0 0)
(243.2372062551572 0 0)
(243.2372062551572 0 0)
(243.2372062551572 0 0)
(243.2372062551572 0 0)
(243.2372062551572 0 0)
(243.2372062551572 0 0)
(243.2372062551572 0 0)
(243.2372062551572 0 0)
(243.2372062551572 0 0)
(243.2372062551572 0 0)
(243.2372062551572 0 0)
(243.2372062551572 0 0)
(243.2372062551572 0 0)
(243.2372062551572 0 0)
(243.2372062551572 0 0)
(243.2372062551572 0 0)
(243.2372062551572 0 0)
(243.2372062551572 0 0)
(243.2372062551572 0 0)
 ) 
; 
    }
    atmosphere
    {
        type            characteristicFarfieldVelocity;
        U               ( 243.158 0 0 );
        p               23842.297202;
        T               218.808;
        k               8 , 875;
        omega           13.6;
        gamma           1.4;
        p_rho           62785.1798013;
        nue_t           7.96e-06;
        nue_tilda       0.0001135;
        value           uniform (0 0 0);
    }
    fuselage
    {
        type            boundaryCorrectedFixedValue;
        U               ( 243.158 0 0 );
        p               23842.297202;
        T               218.808;
        k               8 , 875;
        omega           13.6;
        gamma           1.4;
        p_rho           62785.1798013;
        nue_t           7.96e-06;
        nue_tilda       0.0001135;
        value           uniform (0 0 0);
    }
    frontAndBack_left
    {
        type            wedge;
    }
    outlet
    {
        type            zeroGradient;
    }
}


// ************************************************************************* //
